<?xml version="1.0" encoding="iso-8859-1"?>

<configuration xmlns:xsi="http://www.w3.org/2001/XMLSchema-instance" xsi:noNamespaceSchemaLocation="http://sumo.sf.net/xsd/sumoConfiguration.xsd">

    <input>
        <net-file value="sumo_files/optimized_map.net.xml"/>
		<route-files value="sumo_files/TAZ_routes.rou.xml"/>
		<additional-files value="sumo_files/buildingsPolygons.poi.xml,sumo_files/detectors.add.xml,config_stateDump.xml"/>
		<summary value="sumo_files/simOutput_summary.xml"/>
		<duration-log.disable value="true"/>
		<gui-settings-file value="simSettings.settings.xml"/>
		<no-warnings value="true"/>
    </input>
	
	<time>
		<begin value="0"/>
		<end value="4000"/>
	</time>
	

</configuration>
